# vtk DataFile Version 2.0
VTK from Matlab
ASCII
DATASET UNSTRUCTURED_GRID
POINTS 4 float
5.54 7.04 2.28 4.19 5.40 4.40 2.84 3.77 6.52 1.49 2.13 8.64 
POINT_DATA 4
SCALARS Likelihood float
LOOKUP_TABLE default
1.00 1.00 1.00 1.00 