# vtk DataFile Version 2.0
VTK from Matlab
ASCII
DATASET UNSTRUCTURED_GRID
POINTS 4 float
0.76 4.24 0.78 2.23 3.09 3.13 3.70 1.94 5.48 5.17 0.79 7.83 
POINT_DATA 4
SCALARS Likelihood float
LOOKUP_TABLE default
1.00 1.00 1.00 1.00 