# vtk DataFile Version 2.0
VTK from Matlab
ASCII
DATASET UNSTRUCTURED_GRID
POINTS 4 float
0.66 4.14 0.68 2.13 2.99 3.03 3.60 1.84 5.38 5.07 0.69 7.73 
POINT_DATA 4
SCALARS Likelihood float
LOOKUP_TABLE default
1.00 1.00 1.00 1.00 